compute-0-14.local
 Entering Gaussian System, Link 0=g09
 Initial command:
 /share/apps/g09RelE.01/g09/l1.exe "/state/partition1/berta/Gau-57997.inp" -scrdir="/state/partition1/berta/"
 Entering Link 1 = /share/apps/g09RelE.01/g09/l1.exe PID=     57998.
  
 Copyright (c) 1988,1990,1992,1993,1995,1998,2003,2009,2015,
            Gaussian, Inc.  All Rights Reserved.
  
 This is part of the Gaussian(R) 09 program.  It is based on
 the Gaussian(R) 03 system (copyright 2003, Gaussian, Inc.),
 the Gaussian(R) 98 system (copyright 1998, Gaussian, Inc.),
 the Gaussian(R) 94 system (copyright 1995, Gaussian, Inc.),
 the Gaussian 92(TM) system (copyright 1992, Gaussian, Inc.),
 the Gaussian 90(TM) system (copyright 1990, Gaussian, Inc.),
 the Gaussian 88(TM) system (copyright 1988, Gaussian, Inc.),
 the Gaussian 86(TM) system (copyright 1986, Carnegie Mellon
 University), and the Gaussian 82(TM) system (copyright 1983,
 Carnegie Mellon University). Gaussian is a federally registered
 trademark of Gaussian, Inc.
  
 This software contains proprietary and confidential information,
 including trade secrets, belonging to Gaussian, Inc.
  
 This software is provided under written license and may be
 used, copied, transmitted, or stored only in accord with that
 written license.
  
 The following legend is applicable only to US Government
 contracts under FAR:
  
                    RESTRICTED RIGHTS LEGEND
  
 Use, reproduction and disclosure by the US Government is
 subject to restrictions as set forth in subparagraphs (a)
 and (c) of the Commercial Computer Software - Restricted
 Rights clause in FAR 52.227-19.
  
 Gaussian, Inc.
 340 Quinnipiac St., Bldg. 40, Wallingford CT 06492
  
  
 ---------------------------------------------------------------
 Warning -- This program may not be used in any manner that
 competes with the business of Gaussian, Inc. or will provide
 assistance to any competitor of Gaussian, Inc.  The licensee
 of this program is prohibited from giving any competitor of
 Gaussian, Inc. access to this program.  By using this program,
 the user acknowledges that Gaussian, Inc. is engaged in the
 business of creating and licensing software in the field of
 computational chemistry and represents and warrants to the
 licensee that it is not a competitor of Gaussian, Inc. and that
 it will not use this program in any manner prohibited above.
 ---------------------------------------------------------------
  

 Cite this work as:
 Gaussian 09, Revision E.01,
 M. J. Frisch, G. W. Trucks, H. B. Schlegel, G. E. Scuseria, 
 M. A. Robb, J. R. Cheeseman, G. Scalmani, V. Barone, B. Mennucci, 
 G. A. Petersson, H. Nakatsuji, M. Caricato, X. Li, H. P. Hratchian, 
 A. F. Izmaylov, J. Bloino, G. Zheng, J. L. Sonnenberg, M. Hada, 
 M. Ehara, K. Toyota, R. Fukuda, J. Hasegawa, M. Ishida, T. Nakajima, 
 Y. Honda, O. Kitao, H. Nakai, T. Vreven, J. A. Montgomery, Jr., 
 J. E. Peralta, F. Ogliaro, M. Bearpark, J. J. Heyd, E. Brothers, 
 K. N. Kudin, V. N. Staroverov, T. Keith, R. Kobayashi, J. Normand, 
 K. Raghavachari, A. Rendell, J. C. Burant, S. S. Iyengar, J. Tomasi, 
 M. Cossi, N. Rega, J. M. Millam, M. Klene, J. E. Knox, J. B. Cross, 
 V. Bakken, C. Adamo, J. Jaramillo, R. Gomperts, R. E. Stratmann, 
 O. Yazyev, A. J. Austin, R. Cammi, C. Pomelli, J. W. Ochterski, 
 R. L. Martin, K. Morokuma, V. G. Zakrzewski, G. A. Voth, 
 P. Salvador, J. J. Dannenberg, S. Dapprich, A. D. Daniels, 
 O. Farkas, J. B. Foresman, J. V. Ortiz, J. Cioslowski, 
 and D. J. Fox, Gaussian, Inc., Wallingford CT, 2013.
 
 ******************************************
 Gaussian 09:  ES64L-G09RevE.01 30-Nov-2015
                22-Mar-2017 
 ******************************************
 %chk=frag1_point3.chk
 %nproc=4
 Will use up to    4 processors via shared memory.
 %mem=6553MB
 ---------------------------------------------
 #P RwB97XD/6-311G(d,p)int(grid=ultrafine) scf
 ---------------------------------------------
 1/38=1/1;
 2/12=2,17=6,18=5,40=1/2;
 3/5=4,6=6,7=101,11=2,16=1,25=1,30=1,74=-58,75=-5,116=1/1,2,3;
 4//1;
 5/5=2,38=5/2;
 6/7=2,8=2,9=2,10=2,28=1/1;
 99/5=1,9=1/99;
 Leave Link    1 at Wed Mar 22 22:16:02 2017, MaxMem=   858914816 cpu:         0.2
 (Enter /share/apps/g09RelE.01/g09/l101.exe)
 ------------
 frag1_point3
 ------------
 Symbolic Z-matrix:
 Charge =  0 Multiplicity = 1
 H                    -0.15235   1.76205   2.01673 
 H                    -0.0155    2.06631   3.73144 
 H                     0.84569   0.70111   3.02687 
 C                     0.54998   1.73911   2.85483 
 C                     1.75577   2.6359    2.60656 
 H                     1.45064   3.66368   2.39247 
 H                     2.41747   2.66419   3.47739 
 H                     2.34715   2.2918    1.75739 
 
 NAtoms=      8 NQM=        8 NQMF=       0 NMMI=      0 NMMIF=      0
                NMic=       0 NMicF=      0.
                    Isotopes and Nuclear Properties:
 (Nuclear quadrupole moments (NQMom) in fm**2, nuclear magnetic moments (NMagM)
  in nuclear magnetons)

  Atom         1           2           3           4           5           6           7           8
 IAtWgt=           1           1           1          12          12           1           1           1
 AtmWgt=   1.0078250   1.0078250   1.0078250  12.0000000  12.0000000   1.0078250   1.0078250   1.0078250
 NucSpn=           1           1           1           0           0           1           1           1
 AtZEff=   0.0000000   0.0000000   0.0000000   0.0000000   0.0000000   0.0000000   0.0000000   0.0000000
 NQMom=    0.0000000   0.0000000   0.0000000   0.0000000   0.0000000   0.0000000   0.0000000   0.0000000
 NMagM=    2.7928460   2.7928460   2.7928460   0.0000000   0.0000000   2.7928460   2.7928460   2.7928460
 AtZNuc=   1.0000000   1.0000000   1.0000000   6.0000000   6.0000000   1.0000000   1.0000000   1.0000000
 Leave Link  101 at Wed Mar 22 22:16:03 2017, MaxMem=   858914816 cpu:         0.4
 (Enter /share/apps/g09RelE.01/g09/l202.exe)
                          Input orientation:                          
 ---------------------------------------------------------------------
 Center     Atomic      Atomic             Coordinates (Angstroms)
 Number     Number       Type             X           Y           Z
 ---------------------------------------------------------------------
      1          1           0       -0.152346    1.762046    2.016730
      2          1           0       -0.015495    2.066315    3.731437
      3          1           0        0.845693    0.701111    3.026872
      4          6           0        0.549982    1.739113    2.854830
      5          6           0        1.755767    2.635895    2.606563
      6          1           0        1.450640    3.663684    2.392468
      7          1           0        2.417470    2.664189    3.477387
      8          1           0        2.347146    2.291797    1.757388
 ---------------------------------------------------------------------
                    Distance matrix (angstroms):
                    1          2          3          4          5
     1  H    0.000000
     2  H    1.746862   0.000000
     3  H    1.772583   1.761204   0.000000
     4  C    1.093710   1.093282   1.092928   0.000000
     5  C    2.180002   2.174197   2.179056   1.523080   0.000000
     6  H    2.515347   2.548328   3.089542   2.174612   1.093293
     7  H    3.090523   2.518196   2.554823   2.175053   1.094068
     8  H    2.568142   3.087035   2.529077   2.177071   1.090519
                    6          7          8
     6  H    0.000000
     7  H    1.763746   0.000000
     8  H    1.757590   1.761255   0.000000
 Stoichiometry    C2H6
 Framework group  C1[X(C2H6)]
 Deg. of freedom    18
 Full point group                 C1      NOp   1
 Largest Abelian subgroup         C1      NOp   1
 Largest concise Abelian subgroup C1      NOp   1
                         Standard orientation:                         
 ---------------------------------------------------------------------
 Center     Atomic      Atomic             Coordinates (Angstroms)
 Number     Number       Type             X           Y           Z
 ---------------------------------------------------------------------
      1          1           0       -1.167206    0.778754   -0.651626
      2          1           0       -1.160963    0.195866    0.995107
      3          1           0       -1.164105   -0.964385   -0.329900
      4          6           0       -0.761096   -0.002542   -0.002893
      5          6           0        0.761979   -0.000065   -0.000400
      6          1           0        1.158415    0.977787    0.285840
      7          1           0        1.160588   -0.735484    0.704764
      8          1           0        1.167972   -0.236894   -0.984428
 ---------------------------------------------------------------------
 Rotational constants (GHZ):     80.8888094     20.0580684     20.0126176
 Leave Link  202 at Wed Mar 22 22:16:03 2017, MaxMem=   858914816 cpu:         0.0
 (Enter /share/apps/g09RelE.01/g09/l301.exe)
 Standard basis: 6-311G(d,p) (5D, 7F)
 Ernie: Thresh=  0.10000D-02 Tol=  0.10000D-05 Strict=F.
 There are    74 symmetry adapted cartesian basis functions of A   symmetry.
 There are    72 symmetry adapted basis functions of A   symmetry.
    72 basis functions,   112 primitive gaussians,    74 cartesian basis functions
     9 alpha electrons        9 beta electrons
       nuclear repulsion energy        42.2579152915 Hartrees.
 IExCor= 4639 DFT=T Ex+Corr=wB97XD ExCW=0 ScaHFX=  1.000000
 ScaDFX=  1.000000  1.000000  1.000000  1.000000 ScalE2=  1.000000  1.000000
 IRadAn=      5 IRanWt=     -1 IRanGd=            0 ICorTp=0 IEmpDi=121
  HFx wShort=  0.000000 wLong=  0.200000 cFull=  0.222036 cShort=  0.000000 cLong=  0.777964
  DFx wShort=  0.000000 wLong=  0.200000 cFull=  0.000000 cShort=  0.000000 cLong=  1.000000
 NAtoms=    8 NActive=    8 NUniq=    8 SFac= 1.00D+00 NAtFMM=   60 NAOKFM=F Big=F
 Integral buffers will be    131072 words long.
 Raffenetti 2 integral format.
 Two-electron integral symmetry is turned on.
 R6Disp:  Grimme-D2 Dispersion energy=       -0.0018515605 Hartrees.
 Nuclear repulsion after empirical dispersion term =       42.2560637310 Hartrees.
 Leave Link  301 at Wed Mar 22 22:16:03 2017, MaxMem=   858914816 cpu:         0.3
 (Enter /share/apps/g09RelE.01/g09/l302.exe)
 NPDir=0 NMtPBC=     1 NCelOv=     1 NCel=       1 NClECP=     1 NCelD=      1
         NCelK=      1 NCelE2=     1 NClLst=     1 CellRange=     0.0.
 One-electron integrals computed using PRISM.
 NBasis=    72 RedAO= T EigKep=  3.88D-03  NBF=    72
 NBsUse=    72 1.00D-06 EigRej= -1.00D+00 NBFU=    72
 Precomputing XC quadrature grid using
 IXCGrd= 4 IRadAn=           5 IRanWt=          -1 IRanGd=           0 AccXCQ= 0.00D+00.
 Generated NRdTot=       0 NPtTot=           0 NUsed=           0 NTot=          32
 NSgBfM=    74    74    74    74    74 MxSgAt=     8 MxSgA2=     8.
 Leave Link  302 at Wed Mar 22 22:16:03 2017, MaxMem=   858914816 cpu:         1.0
 (Enter /share/apps/g09RelE.01/g09/l303.exe)
 DipDrv:  MaxL=1.
 Leave Link  303 at Wed Mar 22 22:16:03 2017, MaxMem=   858914816 cpu:         0.1
 (Enter /share/apps/g09RelE.01/g09/l401.exe)
 ExpMin= 1.03D-01 ExpMax= 4.56D+03 ExpMxC= 6.82D+02 IAcc=3 IRadAn=         5 AccDes= 0.00D+00
 Harris functional with IExCor= 4639 and IRadAn=       5 diagonalized for initial guess.
 HarFok:  IExCor= 4639 AccDes= 0.00D+00 IRadAn=         5 IDoV= 1 UseB2=F ITyADJ=14
 ICtDFT=  3500011 ScaDFX=  1.000000  1.000000  1.000000  1.000000
 FoFCou: FMM=F IPFlag=           0 FMFlag=      100000 FMFlg1=           0
         NFxFlg=           0 DoJE=T BraDBF=F KetDBF=T FulRan=T
         wScrn=  0.000000 ICntrl=     500 IOpCl=  0 I1Cent=   200000004 NGrid=           0
         NMat0=    1 NMatS0=      1 NMatT0=    0 NMatD0=    1 NMtDS0=    0 NMtDT0=    0
 Petite list used in FoFCou.
 Harris En= -75.6197052309641    
 JPrj=0 DoOrth=F DoCkMO=F.
 Leave Link  401 at Wed Mar 22 22:16:04 2017, MaxMem=   858914816 cpu:         3.8
 (Enter /share/apps/g09RelE.01/g09/l502.exe)
 Closed shell SCF:
 Using DIIS extrapolation, IDIIS=  1040.
 Integral symmetry usage will be decided dynamically.
 Keep R1 ints in memory in canonical form, NReq=7841594.
 IVT=       35988 IEndB=       35988 NGot=   858914816 MDV=   851969817
 LenX=   851969817 LenY=   851963900
 Requested convergence on RMS density matrix=1.00D-08 within 128 cycles.
 Requested convergence on MAX density matrix=1.00D-06.
 Requested convergence on             energy=1.00D-06.
 No special actions if energy rises.
 FoFCou: FMM=F IPFlag=           0 FMFlag=           0 FMFlg1=           0
         NFxFlg=           0 DoJE=F BraDBF=F KetDBF=F FulRan=T
         wScrn=  0.000000 ICntrl=     600 IOpCl=  0 I1Cent=           0 NGrid=           0
         NMat0=    1 NMatS0=   2628 NMatT0=    0 NMatD0=    1 NMtDS0=    0 NMtDT0=    0
 Symmetry not used in FoFCou.
 Integral accuracy reduced to 1.0D-05 until final iterations.

 Cycle   1  Pass 0  IDiag  1:
 E= -79.7914652370427    
 DIIS: error= 6.97D-02 at cycle   1 NSaved=   1.
 NSaved= 1 IEnMin= 1 EnMin= -79.7914652370427     IErMin= 1 ErrMin= 6.97D-02
 ErrMax= 6.97D-02  0.00D+00 EMaxC= 1.00D-01 BMatC= 1.68D-01 BMatP= 1.68D-01
 IDIUse=3 WtCom= 3.03D-01 WtEn= 6.97D-01
 Coeff-Com:  0.100D+01
 Coeff-En:   0.100D+01
 Coeff:      0.100D+01
 Gap=     0.524 Goal=   None    Shift=    0.000
 GapD=    0.524 DampG=2.000 DampE=0.500 DampFc=1.0000 IDamp=-1.
 RMSDP=1.97D-03 MaxDP=2.54D-02              OVMax= 6.05D-02

 Cycle   2  Pass 0  IDiag  1:
 E= -79.8138857280885     Delta-E=       -0.022420491046 Rises=F Damp=F
 DIIS: error= 1.74D-02 at cycle   2 NSaved=   2.
 NSaved= 2 IEnMin= 2 EnMin= -79.8138857280885     IErMin= 2 ErrMin= 1.74D-02
 ErrMax= 1.74D-02  0.00D+00 EMaxC= 1.00D-01 BMatC= 1.08D-02 BMatP= 1.68D-01
 IDIUse=3 WtCom= 8.26D-01 WtEn= 1.74D-01
 Coeff-Com:  0.118D+00 0.882D+00
 Coeff-En:   0.366D-01 0.963D+00
 Coeff:      0.104D+00 0.896D+00
 Gap=     0.564 Goal=   None    Shift=    0.000
 RMSDP=1.33D-03 MaxDP=3.20D-02 DE=-2.24D-02 OVMax= 3.75D-02

 Cycle   3  Pass 0  IDiag  1:
 E= -79.8205430220918     Delta-E=       -0.006657294003 Rises=F Damp=F
 DIIS: error= 1.10D-02 at cycle   3 NSaved=   3.
 NSaved= 3 IEnMin= 3 EnMin= -79.8205430220918     IErMin= 3 ErrMin= 1.10D-02
 ErrMax= 1.10D-02  0.00D+00 EMaxC= 1.00D-01 BMatC= 4.41D-03 BMatP= 1.08D-02
 IDIUse=3 WtCom= 8.90D-01 WtEn= 1.10D-01
 Coeff-Com:  0.226D-01 0.392D+00 0.585D+00
 Coeff-En:   0.000D+00 0.235D+00 0.765D+00
 Coeff:      0.201D-01 0.375D+00 0.605D+00
 Gap=     0.551 Goal=   None    Shift=    0.000
 RMSDP=5.10D-04 MaxDP=1.14D-02 DE=-6.66D-03 OVMax= 1.54D-02

 Cycle   4  Pass 0  IDiag  1:
 E= -79.8247081993456     Delta-E=       -0.004165177254 Rises=F Damp=F
 DIIS: error= 6.44D-04 at cycle   4 NSaved=   4.
 NSaved= 4 IEnMin= 4 EnMin= -79.8247081993456     IErMin= 4 ErrMin= 6.44D-04
 ErrMax= 6.44D-04  0.00D+00 EMaxC= 1.00D-01 BMatC= 8.57D-06 BMatP= 4.41D-03
 IDIUse=3 WtCom= 9.94D-01 WtEn= 6.44D-03
 Coeff-Com: -0.236D-02-0.412D-01-0.187D-01 0.106D+01
 Coeff-En:   0.000D+00 0.000D+00 0.000D+00 0.100D+01
 Coeff:     -0.235D-02-0.409D-01-0.186D-01 0.106D+01
 Gap=     0.551 Goal=   None    Shift=    0.000
 RMSDP=4.37D-05 MaxDP=7.46D-04 DE=-4.17D-03 OVMax= 1.27D-03

 Cycle   5  Pass 0  IDiag  1:
 E= -79.8247180195658     Delta-E=       -0.000009820220 Rises=F Damp=F
 DIIS: error= 4.41D-05 at cycle   5 NSaved=   5.
 NSaved= 5 IEnMin= 5 EnMin= -79.8247180195658     IErMin= 5 ErrMin= 4.41D-05
 ErrMax= 4.41D-05  0.00D+00 EMaxC= 1.00D-01 BMatC= 1.27D-07 BMatP= 8.57D-06
 IDIUse=1 WtCom= 1.00D+00 WtEn= 0.00D+00
 Coeff-Com: -0.957D-03-0.169D-01-0.207D-01 0.604D-01 0.978D+00
 Coeff:     -0.957D-03-0.169D-01-0.207D-01 0.604D-01 0.978D+00
 Gap=     0.551 Goal=   None    Shift=    0.000
 RMSDP=9.36D-06 MaxDP=1.01D-04 DE=-9.82D-06 OVMax= 1.72D-04

 Initial convergence to 1.0D-05 achieved.  Increase integral accuracy.
 Cycle   6  Pass 1  IDiag  1:
 E= -79.8247237675876     Delta-E=       -0.000005748022 Rises=F Damp=F
 DIIS: error= 2.21D-05 at cycle   1 NSaved=   1.
 NSaved= 1 IEnMin= 1 EnMin= -79.8247237675876     IErMin= 1 ErrMin= 2.21D-05
 ErrMax= 2.21D-05  0.00D+00 EMaxC= 1.00D-01 BMatC= 1.58D-08 BMatP= 1.58D-08
 IDIUse=1 WtCom= 1.00D+00 WtEn= 0.00D+00
 Coeff-Com:  0.100D+01
 Coeff:      0.100D+01
 Gap=     0.551 Goal=   None    Shift=    0.000
 RMSDP=9.36D-06 MaxDP=1.01D-04 DE=-5.75D-06 OVMax= 5.38D-05

 Cycle   7  Pass 1  IDiag  1:
 E= -79.8247237856029     Delta-E=       -0.000000018015 Rises=F Damp=F
 DIIS: error= 4.63D-06 at cycle   2 NSaved=   2.
 NSaved= 2 IEnMin= 2 EnMin= -79.8247237856029     IErMin= 2 ErrMin= 4.63D-06
 ErrMax= 4.63D-06  0.00D+00 EMaxC= 1.00D-01 BMatC= 8.73D-10 BMatP= 1.58D-08
 IDIUse=1 WtCom= 1.00D+00 WtEn= 0.00D+00
 Coeff-Com:  0.110D-01 0.989D+00
 Coeff:      0.110D-01 0.989D+00
 Gap=     0.551 Goal=   None    Shift=    0.000
 RMSDP=6.65D-07 MaxDP=8.51D-06 DE=-1.80D-08 OVMax= 1.51D-05

 Cycle   8  Pass 1  IDiag  1:
 E= -79.8247237865026     Delta-E=       -0.000000000900 Rises=F Damp=F
 DIIS: error= 3.58D-06 at cycle   3 NSaved=   3.
 NSaved= 3 IEnMin= 3 EnMin= -79.8247237865026     IErMin= 3 ErrMin= 3.58D-06
 ErrMax= 3.58D-06  0.00D+00 EMaxC= 1.00D-01 BMatC= 4.26D-10 BMatP= 8.73D-10
 IDIUse=1 WtCom= 1.00D+00 WtEn= 0.00D+00
 Coeff-Com: -0.587D-01 0.408D+00 0.650D+00
 Coeff:     -0.587D-01 0.408D+00 0.650D+00
 Gap=     0.551 Goal=   None    Shift=    0.000
 RMSDP=1.96D-07 MaxDP=5.15D-06 DE=-9.00D-10 OVMax= 6.29D-06

 Cycle   9  Pass 1  IDiag  1:
 E= -79.8247237869213     Delta-E=       -0.000000000419 Rises=F Damp=F
 DIIS: error= 2.00D-07 at cycle   4 NSaved=   4.
 NSaved= 4 IEnMin= 4 EnMin= -79.8247237869213     IErMin= 4 ErrMin= 2.00D-07
 ErrMax= 2.00D-07  0.00D+00 EMaxC= 1.00D-01 BMatC= 2.76D-12 BMatP= 4.26D-10
 IDIUse=1 WtCom= 1.00D+00 WtEn= 0.00D+00
 Coeff-Com:  0.607D-02-0.862D-01-0.810D-01 0.116D+01
 Coeff:      0.607D-02-0.862D-01-0.810D-01 0.116D+01
 Gap=     0.551 Goal=   None    Shift=    0.000
 RMSDP=8.20D-08 MaxDP=7.48D-07 DE=-4.19D-10 OVMax= 1.69D-06

 Cycle  10  Pass 1  IDiag  1:
 E= -79.8247237869298     Delta-E=       -0.000000000009 Rises=F Damp=F
 DIIS: error= 3.80D-08 at cycle   5 NSaved=   5.
 NSaved= 5 IEnMin= 5 EnMin= -79.8247237869298     IErMin= 5 ErrMin= 3.80D-08
 ErrMax= 3.80D-08  0.00D+00 EMaxC= 1.00D-01 BMatC= 8.66D-14 BMatP= 2.76D-12
 IDIUse=1 WtCom= 1.00D+00 WtEn= 0.00D+00
 Coeff-Com:  0.205D-02-0.177D-01-0.263D-01 0.919D-01 0.950D+00
 Coeff:      0.205D-02-0.177D-01-0.263D-01 0.919D-01 0.950D+00
 Gap=     0.551 Goal=   None    Shift=    0.000
 RMSDP=9.67D-09 MaxDP=8.74D-08 DE=-8.55D-12 OVMax= 1.94D-07

 SCF Done:  E(RwB97XD) =  -79.8247237869     A.U. after   10 cycles
            NFock= 10  Conv=0.97D-08     -V/T= 2.0055
 KE= 7.938707888517D+01 PE=-2.687594736469D+02 EE= 6.729160724374D+01
 Leave Link  502 at Wed Mar 22 22:16:10 2017, MaxMem=   858914816 cpu:        24.2
 (Enter /share/apps/g09RelE.01/g09/l601.exe)
 Copying SCF densities to generalized density rwf, IOpCl= 0 IROHF=0.

 **********************************************************************

            Population analysis using the SCF density.

 **********************************************************************

 Orbital symmetries:
       Occupied  (A) (A) (A) (A) (A) (A) (A) (A) (A)
       Virtual   (A) (A) (A) (A) (A) (A) (A) (A) (A) (A) (A) (A)
                 (A) (A) (A) (A) (A) (A) (A) (A) (A) (A) (A) (A)
                 (A) (A) (A) (A) (A) (A) (A) (A) (A) (A) (A) (A)
                 (A) (A) (A) (A) (A) (A) (A) (A) (A) (A) (A) (A)
                 (A) (A) (A) (A) (A) (A) (A) (A) (A) (A) (A) (A)
                 (A) (A) (A)
 The electronic state is 1-A.
 Alpha  occ. eigenvalues --  -10.26836 -10.26811  -0.85243  -0.71072  -0.52216
 Alpha  occ. eigenvalues --   -0.52010  -0.45295  -0.42485  -0.42258
 Alpha virt. eigenvalues --    0.12852   0.16914   0.18340   0.18404   0.22035
 Alpha virt. eigenvalues --    0.22087   0.30810   0.37815   0.38010   0.41424
 Alpha virt. eigenvalues --    0.41507   0.41617   0.62518   0.65821   0.67231
 Alpha virt. eigenvalues --    0.67293   0.68597   0.68635   0.70771   0.84177
 Alpha virt. eigenvalues --    0.94903   1.04003   1.04190   1.33681   1.33941
 Alpha virt. eigenvalues --    1.54977   1.55261   1.55544   1.55921   1.56572
 Alpha virt. eigenvalues --    1.56936   1.58696   1.78359   1.78591   1.78984
 Alpha virt. eigenvalues --    1.91423   1.91628   2.07759   2.18280   2.18830
 Alpha virt. eigenvalues --    2.19368   2.37108   2.40775   2.40960   2.46714
 Alpha virt. eigenvalues --    2.47292   2.53032   2.60928   2.61348   2.67703
 Alpha virt. eigenvalues --    2.68127   2.74729   2.75344   2.83662   2.87215
 Alpha virt. eigenvalues --    3.26631   3.87512   3.89309   3.91440   3.92492
 Alpha virt. eigenvalues --    4.32864  24.02629  24.09511
          Condensed to atoms (all electrons):
               1          2          3          4          5          6
     1  H    0.573629  -0.030359  -0.027198   0.408198  -0.034691  -0.006343
     2  H   -0.030359   0.576225  -0.028513   0.408192  -0.035131  -0.005237
     3  H   -0.027198  -0.028513   0.570735   0.408443  -0.034851   0.007463
     4  C    0.408198   0.408192   0.408443   4.873991   0.350499  -0.034956
     5  C   -0.034691  -0.035131  -0.034851   0.350499   4.872027   0.408305
     6  H   -0.006343  -0.005237   0.007463  -0.034956   0.408305   0.573524
     7  H    0.007517  -0.006682  -0.004969  -0.035207   0.408366  -0.028218
     8  H   -0.005159   0.007590  -0.006326  -0.034961   0.408767  -0.028807
               7          8
     1  H    0.007517  -0.005159
     2  H   -0.006682   0.007590
     3  H   -0.004969  -0.006326
     4  C   -0.035207  -0.034961
     5  C    0.408366   0.408767
     6  H   -0.028218  -0.028807
     7  H    0.573319  -0.028585
     8  H   -0.028585   0.572253
 Mulliken charges:
               1
     1  H    0.114405
     2  H    0.113914
     3  H    0.115215
     4  C   -0.344200
     5  C   -0.343291
     6  H    0.114269
     7  H    0.114459
     8  H    0.115228
 Sum of Mulliken charges =  -0.00000
 Mulliken charges with hydrogens summed into heavy atoms:
               1
     4  C   -0.000665
     5  C    0.000665
 Electronic spatial extent (au):  <R**2>=            109.5182
 Charge=             -0.0000 electrons
 Dipole moment (field-independent basis, Debye):
    X=              0.0001    Y=              0.0074    Z=              0.0061  Tot=              0.0096
 Quadrupole moment (field-independent basis, Debye-Ang):
   XX=            -15.4150   YY=            -14.8049   ZZ=            -14.8883
   XY=             -0.0112   XZ=             -0.0164   YZ=              0.0036
 Traceless Quadrupole moment (field-independent basis, Debye-Ang):
   XX=             -0.3789   YY=              0.2312   ZZ=              0.1478
   XY=             -0.0112   XZ=             -0.0164   YZ=              0.0036
 Octapole moment (field-independent basis, Debye-Ang**2):
  XXX=             -0.0108  YYY=              0.0814  ZZZ=              0.0594  XYY=             -0.0466
  XXY=              0.0207  XXZ=             -0.0087  XZZ=              0.0578  YZZ=             -0.0719
  YYZ=             -0.0478  XYZ=             -0.0156
 Hexadecapole moment (field-independent basis, Debye-Ang**3):
 XXXX=            -94.6002 YYYY=            -29.5584 ZZZZ=            -29.5021 XXXY=             -0.0381
 XXXZ=             -0.0576 YYYX=              0.8721 YYYZ=              0.0005 ZZZX=             -1.2055
 ZZZY=              0.0152 XXYY=            -19.4265 XXZZ=            -19.5022 YYZZ=             -9.8492
 XXYZ=              0.0046 YYXZ=              1.1769 ZZXY=             -0.8817
 N-N= 4.225606373101D+01 E-N=-2.687594743921D+02  KE= 7.938707888517D+01
 No NMR shielding tensors so no spin-rotation constants.
 Leave Link  601 at Wed Mar 22 22:16:11 2017, MaxMem=   858914816 cpu:         0.8
 (Enter /share/apps/g09RelE.01/g09/l9999.exe)
 1\1\GINC-COMPUTE-0-14\SP\RwB97XD\6-311G(d,p)\C2H6\BERTA\22-Mar-2017\0\
 \#P RwB97XD/6-311G(d,p)int(grid=ultrafine) scf\\frag1_point3\\0,1\H,0,
 -0.152346,1.762046,2.01673\H,0,-0.015495,2.066315,3.731437\H,0,0.84569
 3,0.701111,3.026872\C,0,0.549982,1.739113,2.85483\C,0,1.755767,2.63589
 5,2.606563\H,0,1.45064,3.663684,2.392468\H,0,2.41747,2.664189,3.477387
 \H,0,2.347146,2.291797,1.757388\\Version=ES64L-G09RevE.01\State=1-A\HF
 =-79.8247238\RMSD=9.667e-09\Dipole=-0.0020371,0.0030541,0.0009472\Quad
 rupole=-0.1035234,-0.0069297,0.1104531,-0.2133914,0.0579086,0.0185605\
 PG=C01 [X(C2H6)]\\@


 WE THE UNWILLING
 LED BY THE UNQUALIFIED
 HAVE BEEN DOING THE UNBELIEVABLE SO LONG WITH SO LITTLE
 THAT WE NOW ATTEMPT THE IMPOSSIBLE WITH NOTHING.

                                    -- ANONYMOUS
 Job cpu time:       0 days  0 hours  0 minutes 31.3 seconds.
 File lengths (MBytes):  RWF=      5 Int=      0 D2E=      0 Chk=      2 Scr=      1
 Normal termination of Gaussian 09 at Wed Mar 22 22:16:11 2017.
termination
