compute-0-14.local
 Entering Gaussian System, Link 0=g09
 Initial command:
 /share/apps/g09RelE.01/g09/l1.exe "/state/partition1/berta/Gau-57973.inp" -scrdir="/state/partition1/berta/"
 Entering Link 1 = /share/apps/g09RelE.01/g09/l1.exe PID=     57976.
  
 Copyright (c) 1988,1990,1992,1993,1995,1998,2003,2009,2015,
            Gaussian, Inc.  All Rights Reserved.
  
 This is part of the Gaussian(R) 09 program.  It is based on
 the Gaussian(R) 03 system (copyright 2003, Gaussian, Inc.),
 the Gaussian(R) 98 system (copyright 1998, Gaussian, Inc.),
 the Gaussian(R) 94 system (copyright 1995, Gaussian, Inc.),
 the Gaussian 92(TM) system (copyright 1992, Gaussian, Inc.),
 the Gaussian 90(TM) system (copyright 1990, Gaussian, Inc.),
 the Gaussian 88(TM) system (copyright 1988, Gaussian, Inc.),
 the Gaussian 86(TM) system (copyright 1986, Carnegie Mellon
 University), and the Gaussian 82(TM) system (copyright 1983,
 Carnegie Mellon University). Gaussian is a federally registered
 trademark of Gaussian, Inc.
  
 This software contains proprietary and confidential information,
 including trade secrets, belonging to Gaussian, Inc.
  
 This software is provided under written license and may be
 used, copied, transmitted, or stored only in accord with that
 written license.
  
 The following legend is applicable only to US Government
 contracts under FAR:
  
                    RESTRICTED RIGHTS LEGEND
  
 Use, reproduction and disclosure by the US Government is
 subject to restrictions as set forth in subparagraphs (a)
 and (c) of the Commercial Computer Software - Restricted
 Rights clause in FAR 52.227-19.
  
 Gaussian, Inc.
 340 Quinnipiac St., Bldg. 40, Wallingford CT 06492
  
  
 ---------------------------------------------------------------
 Warning -- This program may not be used in any manner that
 competes with the business of Gaussian, Inc. or will provide
 assistance to any competitor of Gaussian, Inc.  The licensee
 of this program is prohibited from giving any competitor of
 Gaussian, Inc. access to this program.  By using this program,
 the user acknowledges that Gaussian, Inc. is engaged in the
 business of creating and licensing software in the field of
 computational chemistry and represents and warrants to the
 licensee that it is not a competitor of Gaussian, Inc. and that
 it will not use this program in any manner prohibited above.
 ---------------------------------------------------------------
  

 Cite this work as:
 Gaussian 09, Revision E.01,
 M. J. Frisch, G. W. Trucks, H. B. Schlegel, G. E. Scuseria, 
 M. A. Robb, J. R. Cheeseman, G. Scalmani, V. Barone, B. Mennucci, 
 G. A. Petersson, H. Nakatsuji, M. Caricato, X. Li, H. P. Hratchian, 
 A. F. Izmaylov, J. Bloino, G. Zheng, J. L. Sonnenberg, M. Hada, 
 M. Ehara, K. Toyota, R. Fukuda, J. Hasegawa, M. Ishida, T. Nakajima, 
 Y. Honda, O. Kitao, H. Nakai, T. Vreven, J. A. Montgomery, Jr., 
 J. E. Peralta, F. Ogliaro, M. Bearpark, J. J. Heyd, E. Brothers, 
 K. N. Kudin, V. N. Staroverov, T. Keith, R. Kobayashi, J. Normand, 
 K. Raghavachari, A. Rendell, J. C. Burant, S. S. Iyengar, J. Tomasi, 
 M. Cossi, N. Rega, J. M. Millam, M. Klene, J. E. Knox, J. B. Cross, 
 V. Bakken, C. Adamo, J. Jaramillo, R. Gomperts, R. E. Stratmann, 
 O. Yazyev, A. J. Austin, R. Cammi, C. Pomelli, J. W. Ochterski, 
 R. L. Martin, K. Morokuma, V. G. Zakrzewski, G. A. Voth, 
 P. Salvador, J. J. Dannenberg, S. Dapprich, A. D. Daniels, 
 O. Farkas, J. B. Foresman, J. V. Ortiz, J. Cioslowski, 
 and D. J. Fox, Gaussian, Inc., Wallingford CT, 2013.
 
 ******************************************
 Gaussian 09:  ES64L-G09RevE.01 30-Nov-2015
                22-Mar-2017 
 ******************************************
 %chk=frag1_point1.chk
 %nproc=4
 Will use up to    4 processors via shared memory.
 %mem=6553MB
 ---------------------------------------------
 #P RwB97XD/6-311G(d,p)int(grid=ultrafine) scf
 ---------------------------------------------
 1/38=1/1;
 2/12=2,17=6,18=5,40=1/2;
 3/5=4,6=6,7=101,11=2,16=1,25=1,30=1,74=-58,75=-5,116=1/1,2,3;
 4//1;
 5/5=2,38=5/2;
 6/7=2,8=2,9=2,10=2,28=1/1;
 99/5=1,9=1/99;
 Leave Link    1 at Wed Mar 22 22:16:02 2017, MaxMem=   858914816 cpu:         0.2
 (Enter /share/apps/g09RelE.01/g09/l101.exe)
 ------------
 frag1_point1
 ------------
 Symbolic Z-matrix:
 Charge =  0 Multiplicity = 1
 H                    -0.14848   1.76827   2.02953 
 H                    -0.00117   2.05547   3.74767 
 H                     0.8571    0.69954   3.02168 
 C                     0.5582    1.73885   2.86313 
 C                     1.76117   2.63986   2.61606 
 H                     1.45286   3.67241   2.42823 
 H                     2.43533   2.65017   3.47643 
 H                     2.33919   2.31391   1.74711 
 
 NAtoms=      8 NQM=        8 NQMF=       0 NMMI=      0 NMMIF=      0
                NMic=       0 NMicF=      0.
                    Isotopes and Nuclear Properties:
 (Nuclear quadrupole moments (NQMom) in fm**2, nuclear magnetic moments (NMagM)
  in nuclear magnetons)

  Atom         1           2           3           4           5           6           7           8
 IAtWgt=           1           1           1          12          12           1           1           1
 AtmWgt=   1.0078250   1.0078250   1.0078250  12.0000000  12.0000000   1.0078250   1.0078250   1.0078250
 NucSpn=           1           1           1           0           0           1           1           1
 AtZEff=   0.0000000   0.0000000   0.0000000   0.0000000   0.0000000   0.0000000   0.0000000   0.0000000
 NQMom=    0.0000000   0.0000000   0.0000000   0.0000000   0.0000000   0.0000000   0.0000000   0.0000000
 NMagM=    2.7928460   2.7928460   2.7928460   0.0000000   0.0000000   2.7928460   2.7928460   2.7928460
 AtZNuc=   1.0000000   1.0000000   1.0000000   6.0000000   6.0000000   1.0000000   1.0000000   1.0000000
 Leave Link  101 at Wed Mar 22 22:16:03 2017, MaxMem=   858914816 cpu:         0.5
 (Enter /share/apps/g09RelE.01/g09/l202.exe)
                          Input orientation:                          
 ---------------------------------------------------------------------
 Center     Atomic      Atomic             Coordinates (Angstroms)
 Number     Number       Type             X           Y           Z
 ---------------------------------------------------------------------
      1          1           0       -0.148481    1.768265    2.029529
      2          1           0       -0.001172    2.055472    3.747670
      3          1           0        0.857104    0.699535    3.021682
      4          6           0        0.558202    1.738849    2.863126
      5          6           0        1.761169    2.639859    2.616055
      6          1           0        1.452863    3.672415    2.428231
      7          1           0        2.435327    2.650166    3.476427
      8          1           0        2.339193    2.313914    1.747108
 ---------------------------------------------------------------------
                    Distance matrix (angstroms):
                    1          2          3          4          5
     1  H    0.000000
     2  H    1.748198   0.000000
     3  H    1.771370   1.761324   0.000000
     4  C    1.093229   1.093420   1.093003   0.000000
     5  C    2.179553   2.174375   2.178698   1.523152   0.000000
     6  H    2.519733   2.543549   3.089519   2.174449   1.093847
     7  H    3.089875   2.522650   2.550008   2.174910   1.093085
     8  H    2.562424   3.089717   2.535221   2.179019   1.093353
                    6          7          8
     6  H    0.000000
     7  H    1.763220   0.000000
     8  H    1.759271   1.764327   0.000000
 Stoichiometry    C2H6
 Framework group  C1[X(C2H6)]
 Deg. of freedom    18
 Full point group                 C1      NOp   1
 Largest Abelian subgroup         C1      NOp   1
 Largest concise Abelian subgroup C1      NOp   1
                         Standard orientation:                         
 ---------------------------------------------------------------------
 Center     Atomic      Atomic             Coordinates (Angstroms)
 Number     Number       Type             X           Y           Z
 ---------------------------------------------------------------------
      1          1           0       -1.166297    0.778602   -0.651993
      2          1           0       -1.161319    0.194180    0.995618
      3          1           0       -1.163999   -0.963575   -0.331732
      4          6           0       -0.761208   -0.002199   -0.002837
      5          6           0        0.761941   -0.000577    0.000105
      6          1           0        1.158095    0.973596    0.301019
      7          1           0        1.160372   -0.745264    0.694029
      8          1           0        1.168748   -0.220879   -0.990549
 ---------------------------------------------------------------------
 Rotational constants (GHZ):     80.8212015     20.0508266     20.0151331
 Leave Link  202 at Wed Mar 22 22:16:03 2017, MaxMem=   858914816 cpu:         0.0
 (Enter /share/apps/g09RelE.01/g09/l301.exe)
 Standard basis: 6-311G(d,p) (5D, 7F)
 Ernie: Thresh=  0.10000D-02 Tol=  0.10000D-05 Strict=F.
 There are    74 symmetry adapted cartesian basis functions of A   symmetry.
 There are    72 symmetry adapted basis functions of A   symmetry.
    72 basis functions,   112 primitive gaussians,    74 cartesian basis functions
     9 alpha electrons        9 beta electrons
       nuclear repulsion energy        42.2500578379 Hartrees.
 IExCor= 4639 DFT=T Ex+Corr=wB97XD ExCW=0 ScaHFX=  1.000000
 ScaDFX=  1.000000  1.000000  1.000000  1.000000 ScalE2=  1.000000  1.000000
 IRadAn=      5 IRanWt=     -1 IRanGd=            0 ICorTp=0 IEmpDi=121
  HFx wShort=  0.000000 wLong=  0.200000 cFull=  0.222036 cShort=  0.000000 cLong=  0.777964
  DFx wShort=  0.000000 wLong=  0.200000 cFull=  0.000000 cShort=  0.000000 cLong=  1.000000
 NAtoms=    8 NActive=    8 NUniq=    8 SFac= 1.00D+00 NAtFMM=   60 NAOKFM=F Big=F
 Integral buffers will be    131072 words long.
 Raffenetti 2 integral format.
 Two-electron integral symmetry is turned on.
 R6Disp:  Grimme-D2 Dispersion energy=       -0.0018526209 Hartrees.
 Nuclear repulsion after empirical dispersion term =       42.2482052170 Hartrees.
 Leave Link  301 at Wed Mar 22 22:16:03 2017, MaxMem=   858914816 cpu:         0.3
 (Enter /share/apps/g09RelE.01/g09/l302.exe)
 NPDir=0 NMtPBC=     1 NCelOv=     1 NCel=       1 NClECP=     1 NCelD=      1
         NCelK=      1 NCelE2=     1 NClLst=     1 CellRange=     0.0.
 One-electron integrals computed using PRISM.
 NBasis=    72 RedAO= T EigKep=  3.89D-03  NBF=    72
 NBsUse=    72 1.00D-06 EigRej= -1.00D+00 NBFU=    72
 Precomputing XC quadrature grid using
 IXCGrd= 4 IRadAn=           5 IRanWt=          -1 IRanGd=           0 AccXCQ= 0.00D+00.
 Generated NRdTot=       0 NPtTot=           0 NUsed=           0 NTot=          32
 NSgBfM=    74    74    74    74    74 MxSgAt=     8 MxSgA2=     8.
 Leave Link  302 at Wed Mar 22 22:16:03 2017, MaxMem=   858914816 cpu:         0.8
 (Enter /share/apps/g09RelE.01/g09/l303.exe)
 DipDrv:  MaxL=1.
 Leave Link  303 at Wed Mar 22 22:16:03 2017, MaxMem=   858914816 cpu:         0.1
 (Enter /share/apps/g09RelE.01/g09/l401.exe)
 ExpMin= 1.03D-01 ExpMax= 4.56D+03 ExpMxC= 6.82D+02 IAcc=3 IRadAn=         5 AccDes= 0.00D+00
 Harris functional with IExCor= 4639 and IRadAn=       5 diagonalized for initial guess.
 HarFok:  IExCor= 4639 AccDes= 0.00D+00 IRadAn=         5 IDoV= 1 UseB2=F ITyADJ=14
 ICtDFT=  3500011 ScaDFX=  1.000000  1.000000  1.000000  1.000000
 FoFCou: FMM=F IPFlag=           0 FMFlag=      100000 FMFlg1=           0
         NFxFlg=           0 DoJE=T BraDBF=F KetDBF=T FulRan=T
         wScrn=  0.000000 ICntrl=     500 IOpCl=  0 I1Cent=   200000004 NGrid=           0
         NMat0=    1 NMatS0=      1 NMatT0=    0 NMatD0=    1 NMtDS0=    0 NMtDT0=    0
 Petite list used in FoFCou.
 Harris En= -75.6197846712359    
 JPrj=0 DoOrth=F DoCkMO=F.
 Leave Link  401 at Wed Mar 22 22:16:04 2017, MaxMem=   858914816 cpu:         3.7
 (Enter /share/apps/g09RelE.01/g09/l502.exe)
 Closed shell SCF:
 Using DIIS extrapolation, IDIIS=  1040.
 Integral symmetry usage will be decided dynamically.
 Keep R1 ints in memory in canonical form, NReq=7841594.
 IVT=       35988 IEndB=       35988 NGot=   858914816 MDV=   851969817
 LenX=   851969817 LenY=   851963900
 Requested convergence on RMS density matrix=1.00D-08 within 128 cycles.
 Requested convergence on MAX density matrix=1.00D-06.
 Requested convergence on             energy=1.00D-06.
 No special actions if energy rises.
 FoFCou: FMM=F IPFlag=           0 FMFlag=           0 FMFlg1=           0
         NFxFlg=           0 DoJE=F BraDBF=F KetDBF=F FulRan=T
         wScrn=  0.000000 ICntrl=     600 IOpCl=  0 I1Cent=           0 NGrid=           0
         NMat0=    1 NMatS0=   2628 NMatT0=    0 NMatD0=    1 NMtDS0=    0 NMtDT0=    0
 Symmetry not used in FoFCou.
 Integral accuracy reduced to 1.0D-05 until final iterations.

 Cycle   1  Pass 0  IDiag  1:
 E= -79.7915580304246    
 DIIS: error= 7.42D-02 at cycle   1 NSaved=   1.
 NSaved= 1 IEnMin= 1 EnMin= -79.7915580304246     IErMin= 1 ErrMin= 7.42D-02
 ErrMax= 7.42D-02  0.00D+00 EMaxC= 1.00D-01 BMatC= 1.68D-01 BMatP= 1.68D-01
 IDIUse=3 WtCom= 2.58D-01 WtEn= 7.42D-01
 Coeff-Com:  0.100D+01
 Coeff-En:   0.100D+01
 Coeff:      0.100D+01
 Gap=     0.524 Goal=   None    Shift=    0.000
 GapD=    0.524 DampG=2.000 DampE=0.500 DampFc=1.0000 IDamp=-1.
 RMSDP=1.96D-03 MaxDP=2.53D-02              OVMax= 6.05D-02

 Cycle   2  Pass 0  IDiag  1:
 E= -79.8139464771917     Delta-E=       -0.022388446767 Rises=F Damp=F
 DIIS: error= 1.74D-02 at cycle   2 NSaved=   2.
 NSaved= 2 IEnMin= 2 EnMin= -79.8139464771917     IErMin= 2 ErrMin= 1.74D-02
 ErrMax= 1.74D-02  0.00D+00 EMaxC= 1.00D-01 BMatC= 1.07D-02 BMatP= 1.68D-01
 IDIUse=3 WtCom= 8.26D-01 WtEn= 1.74D-01
 Coeff-Com:  0.118D+00 0.882D+00
 Coeff-En:   0.358D-01 0.964D+00
 Coeff:      0.104D+00 0.896D+00
 Gap=     0.564 Goal=   None    Shift=    0.000
 RMSDP=1.33D-03 MaxDP=3.20D-02 DE=-2.24D-02 OVMax= 3.74D-02

 Cycle   3  Pass 0  IDiag  1:
 E= -79.8205745321173     Delta-E=       -0.006628054926 Rises=F Damp=F
 DIIS: error= 1.10D-02 at cycle   3 NSaved=   3.
 NSaved= 3 IEnMin= 3 EnMin= -79.8205745321173     IErMin= 3 ErrMin= 1.10D-02
 ErrMax= 1.10D-02  0.00D+00 EMaxC= 1.00D-01 BMatC= 4.41D-03 BMatP= 1.07D-02
 IDIUse=3 WtCom= 8.90D-01 WtEn= 1.10D-01
 Coeff-Com:  0.226D-01 0.392D+00 0.585D+00
 Coeff-En:   0.000D+00 0.236D+00 0.764D+00
 Coeff:      0.201D-01 0.375D+00 0.605D+00
 Gap=     0.551 Goal=   None    Shift=    0.000
 RMSDP=5.10D-04 MaxDP=1.14D-02 DE=-6.63D-03 OVMax= 1.54D-02

 Cycle   4  Pass 0  IDiag  1:
 E= -79.8247379199388     Delta-E=       -0.004163387822 Rises=F Damp=F
 DIIS: error= 6.45D-04 at cycle   4 NSaved=   4.
 NSaved= 4 IEnMin= 4 EnMin= -79.8247379199388     IErMin= 4 ErrMin= 6.45D-04
 ErrMax= 6.45D-04  0.00D+00 EMaxC= 1.00D-01 BMatC= 8.53D-06 BMatP= 4.41D-03
 IDIUse=3 WtCom= 9.94D-01 WtEn= 6.45D-03
 Coeff-Com: -0.238D-02-0.414D-01-0.191D-01 0.106D+01
 Coeff-En:   0.000D+00 0.000D+00 0.000D+00 0.100D+01
 Coeff:     -0.236D-02-0.411D-01-0.189D-01 0.106D+01
 Gap=     0.551 Goal=   None    Shift=    0.000
 RMSDP=4.37D-05 MaxDP=7.41D-04 DE=-4.16D-03 OVMax= 1.27D-03

 Cycle   5  Pass 0  IDiag  1:
 E= -79.8247477050014     Delta-E=       -0.000009785063 Rises=F Damp=F
 DIIS: error= 4.48D-05 at cycle   5 NSaved=   5.
 NSaved= 5 IEnMin= 5 EnMin= -79.8247477050014     IErMin= 5 ErrMin= 4.48D-05
 ErrMax= 4.48D-05  0.00D+00 EMaxC= 1.00D-01 BMatC= 1.26D-07 BMatP= 8.53D-06
 IDIUse=1 WtCom= 1.00D+00 WtEn= 0.00D+00
 Coeff-Com: -0.955D-03-0.169D-01-0.206D-01 0.600D-01 0.978D+00
 Coeff:     -0.955D-03-0.169D-01-0.206D-01 0.600D-01 0.978D+00
 Gap=     0.551 Goal=   None    Shift=    0.000
 RMSDP=9.34D-06 MaxDP=9.67D-05 DE=-9.79D-06 OVMax= 1.72D-04

 Initial convergence to 1.0D-05 achieved.  Increase integral accuracy.
 Cycle   6  Pass 1  IDiag  1:
 E= -79.8247526354754     Delta-E=       -0.000004930474 Rises=F Damp=F
 DIIS: error= 2.22D-05 at cycle   1 NSaved=   1.
 NSaved= 1 IEnMin= 1 EnMin= -79.8247526354754     IErMin= 1 ErrMin= 2.22D-05
 ErrMax= 2.22D-05  0.00D+00 EMaxC= 1.00D-01 BMatC= 1.53D-08 BMatP= 1.53D-08
 IDIUse=1 WtCom= 1.00D+00 WtEn= 0.00D+00
 Coeff-Com:  0.100D+01
 Coeff:      0.100D+01
 Gap=     0.551 Goal=   None    Shift=    0.000
 RMSDP=9.34D-06 MaxDP=9.67D-05 DE=-4.93D-06 OVMax= 5.32D-05

 Cycle   7  Pass 1  IDiag  1:
 E= -79.8247526529660     Delta-E=       -0.000000017491 Rises=F Damp=F
 DIIS: error= 4.75D-06 at cycle   2 NSaved=   2.
 NSaved= 2 IEnMin= 2 EnMin= -79.8247526529660     IErMin= 2 ErrMin= 4.75D-06
 ErrMax= 4.75D-06  0.00D+00 EMaxC= 1.00D-01 BMatC= 7.84D-10 BMatP= 1.53D-08
 IDIUse=1 WtCom= 1.00D+00 WtEn= 0.00D+00
 Coeff-Com:  0.208D-02 0.998D+00
 Coeff:      0.208D-02 0.998D+00
 Gap=     0.551 Goal=   None    Shift=    0.000
 RMSDP=6.47D-07 MaxDP=6.15D-06 DE=-1.75D-08 OVMax= 1.52D-05

 Cycle   8  Pass 1  IDiag  1:
 E= -79.8247526538089     Delta-E=       -0.000000000843 Rises=F Damp=F
 DIIS: error= 3.64D-06 at cycle   3 NSaved=   3.
 NSaved= 3 IEnMin= 3 EnMin= -79.8247526538089     IErMin= 3 ErrMin= 3.64D-06
 ErrMax= 3.64D-06  0.00D+00 EMaxC= 1.00D-01 BMatC= 3.86D-10 BMatP= 7.84D-10
 IDIUse=1 WtCom= 1.00D+00 WtEn= 0.00D+00
 Coeff-Com: -0.576D-01 0.411D+00 0.646D+00
 Coeff:     -0.576D-01 0.411D+00 0.646D+00
 Gap=     0.551 Goal=   None    Shift=    0.000
 RMSDP=1.87D-07 MaxDP=4.11D-06 DE=-8.43D-10 OVMax= 5.90D-06

 Cycle   9  Pass 1  IDiag  1:
 E= -79.8247526541906     Delta-E=       -0.000000000382 Rises=F Damp=F
 DIIS: error= 2.25D-07 at cycle   4 NSaved=   4.
 NSaved= 4 IEnMin= 4 EnMin= -79.8247526541906     IErMin= 4 ErrMin= 2.25D-07
 ErrMax= 2.25D-07  0.00D+00 EMaxC= 1.00D-01 BMatC= 2.80D-12 BMatP= 3.86D-10
 IDIUse=1 WtCom= 1.00D+00 WtEn= 0.00D+00
 Coeff-Com:  0.541D-02-0.853D-01-0.704D-01 0.115D+01
 Coeff:      0.541D-02-0.853D-01-0.704D-01 0.115D+01
 Gap=     0.551 Goal=   None    Shift=    0.000
 RMSDP=8.09D-08 MaxDP=7.51D-07 DE=-3.82D-10 OVMax= 1.69D-06

 Cycle  10  Pass 1  IDiag  1:
 E= -79.8247526541992     Delta-E=       -0.000000000009 Rises=F Damp=F
 DIIS: error= 3.84D-08 at cycle   5 NSaved=   5.
 NSaved= 5 IEnMin= 5 EnMin= -79.8247526541992     IErMin= 5 ErrMin= 3.84D-08
 ErrMax= 3.84D-08  0.00D+00 EMaxC= 1.00D-01 BMatC= 7.95D-14 BMatP= 2.80D-12
 IDIUse=1 WtCom= 1.00D+00 WtEn= 0.00D+00
 Coeff-Com:  0.187D-02-0.158D-01-0.243D-01 0.634D-01 0.975D+00
 Coeff:      0.187D-02-0.158D-01-0.243D-01 0.634D-01 0.975D+00
 Gap=     0.551 Goal=   None    Shift=    0.000
 RMSDP=9.93D-09 MaxDP=8.22D-08 DE=-8.53D-12 OVMax= 1.94D-07

 SCF Done:  E(RwB97XD) =  -79.8247526542     A.U. after   10 cycles
            NFock= 10  Conv=0.99D-08     -V/T= 2.0056
 KE= 7.938415078385D+01 PE=-2.687415890019D+02 EE= 6.728448034690D+01
 Leave Link  502 at Wed Mar 22 22:16:11 2017, MaxMem=   858914816 cpu:        25.5
 (Enter /share/apps/g09RelE.01/g09/l601.exe)
 Copying SCF densities to generalized density rwf, IOpCl= 0 IROHF=0.

 **********************************************************************

            Population analysis using the SCF density.

 **********************************************************************

 Orbital symmetries:
       Occupied  (A) (A) (A) (A) (A) (A) (A) (A) (A)
       Virtual   (A) (A) (A) (A) (A) (A) (A) (A) (A) (A) (A) (A)
                 (A) (A) (A) (A) (A) (A) (A) (A) (A) (A) (A) (A)
                 (A) (A) (A) (A) (A) (A) (A) (A) (A) (A) (A) (A)
                 (A) (A) (A) (A) (A) (A) (A) (A) (A) (A) (A) (A)
                 (A) (A) (A) (A) (A) (A) (A) (A) (A) (A) (A) (A)
                 (A) (A) (A)
 The electronic state is 1-A.
 Alpha  occ. eigenvalues --  -10.26851 -10.26823  -0.85236  -0.71058  -0.52202
 Alpha  occ. eigenvalues --   -0.52016  -0.45287  -0.42469  -0.42269
 Alpha virt. eigenvalues --    0.12847   0.16911   0.18351   0.18393   0.22018
 Alpha virt. eigenvalues --    0.22071   0.30801   0.37827   0.38004   0.41422
 Alpha virt. eigenvalues --    0.41506   0.41573   0.62486   0.65793   0.67205
 Alpha virt. eigenvalues --    0.67291   0.68595   0.68605   0.70756   0.84188
 Alpha virt. eigenvalues --    0.94896   1.04018   1.04184   1.33709   1.33902
 Alpha virt. eigenvalues --    1.55029   1.55295   1.55521   1.55909   1.56504
 Alpha virt. eigenvalues --    1.56825   1.58699   1.78379   1.78544   1.78948
 Alpha virt. eigenvalues --    1.91429   1.91567   2.07696   2.18327   2.18733
 Alpha virt. eigenvalues --    2.19306   2.37055   2.40759   2.40885   2.46758
 Alpha virt. eigenvalues --    2.47301   2.52976   2.60946   2.61358   2.67736
 Alpha virt. eigenvalues --    2.68018   2.74636   2.75219   2.83617   2.87247
 Alpha virt. eigenvalues --    3.26642   3.87790   3.89523   3.90928   3.92213
 Alpha virt. eigenvalues --    4.32776  24.02550  24.09401
          Condensed to atoms (all electrons):
               1          2          3          4          5          6
     1  H    0.573355  -0.030161  -0.027318   0.408276  -0.034674  -0.006184
     2  H   -0.030161   0.576050  -0.028536   0.408148  -0.035113  -0.005435
     3  H   -0.027318  -0.028536   0.571041   0.408423  -0.034926   0.007490
     4  C    0.408276   0.408148   0.408423   4.873807   0.350513  -0.035045
     5  C   -0.034674  -0.035113  -0.034926   0.350513   4.872598   0.408183
     6  H   -0.006184  -0.005435   0.007490  -0.035045   0.408183   0.573982
     7  H    0.007505  -0.006445  -0.005161  -0.035144   0.408459  -0.028281
     8  H   -0.005323   0.007580  -0.006165  -0.034973   0.408386  -0.028915
               7          8
     1  H    0.007505  -0.005323
     2  H   -0.006445   0.007580
     3  H   -0.005161  -0.006165
     4  C   -0.035144  -0.034973
     5  C    0.408459   0.408386
     6  H   -0.028281  -0.028915
     7  H    0.572615  -0.028383
     8  H   -0.028383   0.572992
 Mulliken charges:
               1
     1  H    0.114523
     2  H    0.113912
     3  H    0.115153
     4  C   -0.344005
     5  C   -0.343427
     6  H    0.114205
     7  H    0.114836
     8  H    0.114802
 Sum of Mulliken charges =  -0.00000
 Mulliken charges with hydrogens summed into heavy atoms:
               1
     4  C   -0.000416
     5  C    0.000416
 Electronic spatial extent (au):  <R**2>=            109.5404
 Charge=             -0.0000 electrons
 Dipole moment (field-independent basis, Debye):
    X=             -0.0012    Y=              0.0077    Z=              0.0075  Tot=              0.0108
 Quadrupole moment (field-independent basis, Debye-Ang):
   XX=            -15.4199   YY=            -14.8123   ZZ=            -14.8825
   XY=             -0.0105   XZ=             -0.0126   YZ=             -0.0009
 Traceless Quadrupole moment (field-independent basis, Debye-Ang):
   XX=             -0.3816   YY=              0.2259   ZZ=              0.1557
   XY=             -0.0105   XZ=             -0.0126   YZ=             -0.0009
 Octapole moment (field-independent basis, Debye-Ang**2):
  XXX=             -0.0222  YYY=              0.0633  ZZZ=              0.0485  XYY=             -0.0482
  XXY=              0.0200  XXZ=             -0.0047  XZZ=              0.0540  YZZ=             -0.0532
  YYZ=             -0.0287  XYZ=             -0.0181
 Hexadecapole moment (field-independent basis, Debye-Ang**3):
 XXXX=            -94.6310 YYYY=            -29.5567 ZZZZ=            -29.5344 XXXY=             -0.0395
 XXXZ=             -0.0403 YYYX=              0.8424 YYYZ=             -0.0072 ZZZX=             -1.2186
 ZZZY=              0.0039 XXYY=            -19.4388 XXZZ=            -19.5006 YYZZ=             -9.8557
 XXYZ=             -0.0034 YYXZ=              1.2060 ZZXY=             -0.8554
 N-N= 4.224820521698D+01 E-N=-2.687415895534D+02  KE= 7.938415078385D+01
 No NMR shielding tensors so no spin-rotation constants.
 Leave Link  601 at Wed Mar 22 22:16:11 2017, MaxMem=   858914816 cpu:         0.6
 (Enter /share/apps/g09RelE.01/g09/l9999.exe)
 1\1\GINC-COMPUTE-0-14\SP\RwB97XD\6-311G(d,p)\C2H6\BERTA\22-Mar-2017\0\
 \#P RwB97XD/6-311G(d,p)int(grid=ultrafine) scf\\frag1_point1\\0,1\H,0,
 -0.148481,1.768265,2.029529\H,0,-0.001172,2.055472,3.74767\H,0,0.85710
 4,0.699535,3.021682\C,0,0.558202,1.738849,2.863126\C,0,1.761169,2.6398
 59,2.616055\H,0,1.452863,3.672415,2.428231\H,0,2.435327,2.650166,3.476
 427\H,0,2.339193,2.313914,1.747108\\Version=ES64L-G09RevE.01\State=1-A
 \HF=-79.8247527\RMSD=9.928e-09\Dipole=-0.002561,0.00304,0.0014971\Quad
 rupole=-0.1060818,-0.0097663,0.1158481,-0.211666,0.0595027,0.0220659\P
 G=C01 [X(C2H6)]\\@


 WE THE UNWILLING
 LED BY THE UNQUALIFIED
 HAVE BEEN DOING THE UNBELIEVABLE SO LONG WITH SO LITTLE
 THAT WE NOW ATTEMPT THE IMPOSSIBLE WITH NOTHING.

                                    -- ANONYMOUS
 Job cpu time:       0 days  0 hours  0 minutes 32.2 seconds.
 File lengths (MBytes):  RWF=      5 Int=      0 D2E=      0 Chk=      2 Scr=      1
 Normal termination of Gaussian 09 at Wed Mar 22 22:16:11 2017.
termination
