compute-0-7.local
 Entering Gaussian System, Link 0=g09
 Initial command:
 /share/apps/g09RelD.01/g09/l1.exe "/state/partition1/berta/Gau-30989.inp" -scrdir="/state/partition1/berta/"
 Entering Link 1 = /share/apps/g09RelD.01/g09/l1.exe PID=     30990.
  
 Copyright (c) 1988,1990,1992,1993,1995,1998,2003,2009,2013,
            Gaussian, Inc.  All Rights Reserved.
  
 This is part of the Gaussian(R) 09 program.  It is based on
 the Gaussian(R) 03 system (copyright 2003, Gaussian, Inc.),
 the Gaussian(R) 98 system (copyright 1998, Gaussian, Inc.),
 the Gaussian(R) 94 system (copyright 1995, Gaussian, Inc.),
 the Gaussian 92(TM) system (copyright 1992, Gaussian, Inc.),
 the Gaussian 90(TM) system (copyright 1990, Gaussian, Inc.),
 the Gaussian 88(TM) system (copyright 1988, Gaussian, Inc.),
 the Gaussian 86(TM) system (copyright 1986, Carnegie Mellon
 University), and the Gaussian 82(TM) system (copyright 1983,
 Carnegie Mellon University). Gaussian is a federally registered
 trademark of Gaussian, Inc.
  
 This software contains proprietary and confidential information,
 including trade secrets, belonging to Gaussian, Inc.
  
 This software is provided under written license and may be
 used, copied, transmitted, or stored only in accord with that
 written license.
  
 The following legend is applicable only to US Government
 contracts under FAR:
  
                    RESTRICTED RIGHTS LEGEND
  
 Use, reproduction and disclosure by the US Government is
 subject to restrictions as set forth in subparagraphs (a)
 and (c) of the Commercial Computer Software - Restricted
 Rights clause in FAR 52.227-19.
  
 Gaussian, Inc.
 340 Quinnipiac St., Bldg. 40, Wallingford CT 06492
  
  
 ---------------------------------------------------------------
 Warning -- This program may not be used in any manner that
 competes with the business of Gaussian, Inc. or will provide
 assistance to any competitor of Gaussian, Inc.  The licensee
 of this program is prohibited from giving any competitor of
 Gaussian, Inc. access to this program.  By using this program,
 the user acknowledges that Gaussian, Inc. is engaged in the
 business of creating and licensing software in the field of
 computational chemistry and represents and warrants to the
 licensee that it is not a competitor of Gaussian, Inc. and that
 it will not use this program in any manner prohibited above.
 ---------------------------------------------------------------
  

 Cite this work as:
 Gaussian 09, Revision D.01,
 M. J. Frisch, G. W. Trucks, H. B. Schlegel, G. E. Scuseria, 
 M. A. Robb, J. R. Cheeseman, G. Scalmani, V. Barone, B. Mennucci, 
 G. A. Petersson, H. Nakatsuji, M. Caricato, X. Li, H. P. Hratchian, 
 A. F. Izmaylov, J. Bloino, G. Zheng, J. L. Sonnenberg, M. Hada, 
 M. Ehara, K. Toyota, R. Fukuda, J. Hasegawa, M. Ishida, T. Nakajima, 
 Y. Honda, O. Kitao, H. Nakai, T. Vreven, J. A. Montgomery, Jr., 
 J. E. Peralta, F. Ogliaro, M. Bearpark, J. J. Heyd, E. Brothers, 
 K. N. Kudin, V. N. Staroverov, T. Keith, R. Kobayashi, J. Normand, 
 K. Raghavachari, A. Rendell, J. C. Burant, S. S. Iyengar, J. Tomasi, 
 M. Cossi, N. Rega, J. M. Millam, M. Klene, J. E. Knox, J. B. Cross, 
 V. Bakken, C. Adamo, J. Jaramillo, R. Gomperts, R. E. Stratmann, 
 O. Yazyev, A. J. Austin, R. Cammi, C. Pomelli, J. W. Ochterski, 
 R. L. Martin, K. Morokuma, V. G. Zakrzewski, G. A. Voth, 
 P. Salvador, J. J. Dannenberg, S. Dapprich, A. D. Daniels, 
 O. Farkas, J. B. Foresman, J. V. Ortiz, J. Cioslowski, 
 and D. J. Fox, Gaussian, Inc., Wallingford CT, 2013.
 
 ******************************************
 Gaussian 09:  AS64L-G09RevD.01 24-Apr-2013
                22-Mar-2017 
 ******************************************
 %chk=frag1_point4.chk
 %nproc=4
 Will use up to    4 processors via shared memory.
 %mem=4298MB
 ---------------------------------------------
 #P RwB97XD/6-311G(d,p)int(grid=ultrafine) scf
 ---------------------------------------------
 1/38=1/1;
 2/12=2,17=6,18=5,40=1/2;
 3/5=4,6=6,7=101,11=2,16=1,25=1,30=1,74=-58,75=-5,116=1/1,2,3;
 4//1;
 5/5=2,38=5/2;
 6/7=2,8=2,9=2,10=2,28=1/1;
 99/5=1,9=1/99;
 Leave Link    1 at Wed Mar 22 22:18:48 2017, MaxMem=   563347456 cpu:         0.4
 (Enter /share/apps/g09RelD.01/g09/l101.exe)
 ------------
 frag1_point4
 ------------
 Symbolic Z-matrix:
 Charge =  0 Multiplicity = 1
 H                    -0.15306   1.75813   2.01092 
 H                    -0.02222   2.07091   3.72458 
 H                     0.84079   0.70137   3.02874 
 C                     0.54577   1.73894   2.85097 
 C                     1.75281   2.63394   2.60221 
 H                     1.44797   3.65902   2.37501 
 H                     2.40659   2.67282   3.47628 
 H                     2.35127   2.28203   1.7583 
 
 NAtoms=      8 NQM=        8 NQMF=       0 NMMI=      0 NMMIF=      0
                NMic=       0 NMicF=      0.
                    Isotopes and Nuclear Properties:
 (Nuclear quadrupole moments (NQMom) in fm**2, nuclear magnetic moments (NMagM)
  in nuclear magnetons)

  Atom         1           2           3           4           5           6           7           8
 IAtWgt=           1           1           1          12          12           1           1           1
 AtmWgt=   1.0078250   1.0078250   1.0078250  12.0000000  12.0000000   1.0078250   1.0078250   1.0078250
 NucSpn=           1           1           1           0           0           1           1           1
 AtZEff=   0.0000000   0.0000000   0.0000000   0.0000000   0.0000000   0.0000000   0.0000000   0.0000000
 NQMom=    0.0000000   0.0000000   0.0000000   0.0000000   0.0000000   0.0000000   0.0000000   0.0000000
 NMagM=    2.7928460   2.7928460   2.7928460   0.0000000   0.0000000   2.7928460   2.7928460   2.7928460
 AtZNuc=   1.0000000   1.0000000   1.0000000   6.0000000   6.0000000   1.0000000   1.0000000   1.0000000
 Leave Link  101 at Wed Mar 22 22:18:49 2017, MaxMem=   563347456 cpu:         0.5
 (Enter /share/apps/g09RelD.01/g09/l202.exe)
                          Input orientation:                          
 ---------------------------------------------------------------------
 Center     Atomic      Atomic             Coordinates (Angstroms)
 Number     Number       Type             X           Y           Z
 ---------------------------------------------------------------------
      1          1           0       -0.153061    1.758125    2.010922
      2          1           0       -0.022223    2.070915    3.724584
      3          1           0        0.840792    0.701368    3.028743
      4          6           0        0.545771    1.738940    2.850968
      5          6           0        1.752808    2.633936    2.602214
      6          1           0        1.447971    3.659019    2.375011
      7          1           0        2.406586    2.672822    3.476278
      8          1           0        2.351265    2.282033    1.758296
 ---------------------------------------------------------------------
                    Distance matrix (angstroms):
                    1          2          3          4          5
     1  H    0.000000
     2  H    1.746881   0.000000
     3  H    1.772128   1.762001   0.000000
     4  C    1.092891   1.093631   1.093251   0.000000
     5  C    2.179222   2.174268   2.179110   1.523100   0.000000
     6  H    2.511824   2.550469   3.089293   2.174213   1.093317
     7  H    3.087998   2.514570   2.557074   2.173886   1.092211
     8  H    2.570982   3.089386   2.528649   2.179149   1.092787
                    6          7          8
     6  H    0.000000
     7  H    1.761907   0.000000
     8  H    1.758513   1.762736   0.000000
 Stoichiometry    C2H6
 Framework group  C1[X(C2H6)]
 Deg. of freedom    18
 Full point group                 C1      NOp   1
 Largest Abelian subgroup         C1      NOp   1
 Largest concise Abelian subgroup C1      NOp   1
                         Standard orientation:                         
 ---------------------------------------------------------------------
 Center     Atomic      Atomic             Coordinates (Angstroms)
 Number     Number       Type             X           Y           Z
 ---------------------------------------------------------------------
      1          1           0       -1.166087    0.747574   -0.686989
      2          1           0       -1.161261    0.241804    0.985065
      3          1           0       -1.164257   -0.978566   -0.285894
      4          6           0       -0.761176   -0.002505   -0.003001
      5          6           0        0.761920   -0.000531    0.000132
      6          1           0        1.158035    0.991294    0.234051
      7          1           0        1.159501   -0.695500    0.743014
      8          1           0        1.169609   -0.288389   -0.972036
 ---------------------------------------------------------------------
 Rotational constants (GHZ):     80.8749575     20.0550253     20.0160359
 Leave Link  202 at Wed Mar 22 22:18:49 2017, MaxMem=   563347456 cpu:         0.1
 (Enter /share/apps/g09RelD.01/g09/l301.exe)
 Standard basis: 6-311G(d,p) (5D, 7F)
 Ernie: Thresh=  0.10000D-02 Tol=  0.10000D-05 Strict=F.
 There are    74 symmetry adapted cartesian basis functions of A   symmetry.
 There are    72 symmetry adapted basis functions of A   symmetry.
    72 basis functions,   112 primitive gaussians,    74 cartesian basis functions
     9 alpha electrons        9 beta electrons
       nuclear repulsion energy        42.2569723127 Hartrees.
 IExCor= 4639 DFT=T Ex+Corr=wB97XD ExCW=0 ScaHFX=  1.000000
 ScaDFX=  1.000000  1.000000  1.000000  1.000000 ScalE2=  1.000000  1.000000
 IRadAn=      5 IRanWt=     -1 IRanGd=            0 ICorTp=0 IEmpDi=121
  HFx wShort=  0.000000 wLong=  0.200000 cFull=  0.222036 cShort=  0.000000 cLong=  0.777964
  DFx wShort=  0.000000 wLong=  0.200000 cFull=  0.000000 cShort=  0.000000 cLong=  1.000000
 NAtoms=    8 NActive=    8 NUniq=    8 SFac= 1.00D+00 NAtFMM=   60 NAOKFM=F Big=F
 Integral buffers will be    131072 words long.
 Raffenetti 2 integral format.
 Two-electron integral symmetry is turned on.
 R6Disp:  Grimme-D2 Dispersion energy=       -0.0018516994 Hartrees.
 Nuclear repulsion after empirical dispersion term =       42.2551206133 Hartrees.
 Leave Link  301 at Wed Mar 22 22:18:49 2017, MaxMem=   563347456 cpu:         0.6
 (Enter /share/apps/g09RelD.01/g09/l302.exe)
 NPDir=0 NMtPBC=     1 NCelOv=     1 NCel=       1 NClECP=     1 NCelD=      1
         NCelK=      1 NCelE2=     1 NClLst=     1 CellRange=     0.0.
 One-electron integrals computed using PRISM.
 NBasis=    72 RedAO= T EigKep=  3.88D-03  NBF=    72
 NBsUse=    72 1.00D-06 EigRej= -1.00D+00 NBFU=    72
 Precomputing XC quadrature grid using
 IXCGrd= 4 IRadAn=           5 IRanWt=          -1 IRanGd=           0 AccXCQ= 0.00D+00.
 Generated NRdTot=       0 NPtTot=           0 NUsed=           0 NTot=          32
 NSgBfM=    74    74    74    74    74 MxSgAt=     8 MxSgA2=     8.
 Leave Link  302 at Wed Mar 22 22:18:50 2017, MaxMem=   563347456 cpu:         1.3
 (Enter /share/apps/g09RelD.01/g09/l303.exe)
 DipDrv:  MaxL=1.
 Leave Link  303 at Wed Mar 22 22:18:50 2017, MaxMem=   563347456 cpu:         0.2
 (Enter /share/apps/g09RelD.01/g09/l401.exe)
 ExpMin= 1.03D-01 ExpMax= 4.56D+03 ExpMxC= 6.82D+02 IAcc=3 IRadAn=         5 AccDes= 0.00D+00
 Harris functional with IExCor= 4639 and IRadAn=       5 diagonalized for initial guess.
 HarFok:  IExCor= 4639 AccDes= 0.00D+00 IRadAn=         5 IDoV= 1 UseB2=F ITyADJ=14
 ICtDFT=  3500011 ScaDFX=  1.000000  1.000000  1.000000  1.000000
 FoFCou: FMM=F IPFlag=           0 FMFlag=      100000 FMFlg1=           0
         NFxFlg=           0 DoJE=T BraDBF=F KetDBF=T FulRan=T
         wScrn=  0.000000 ICntrl=     500 IOpCl=  0 I1Cent=   200000004 NGrid=           0
         NMat0=    1 NMatS0=      1 NMatT0=    0 NMatD0=    1 NMtDS0=    0 NMtDT0=    0
 Petite list used in FoFCou.
 Harris En= -75.6197095939043    
 JPrj=0 DoOrth=F DoCkMO=F.
 Leave Link  401 at Wed Mar 22 22:18:51 2017, MaxMem=   563347456 cpu:         4.6
 (Enter /share/apps/g09RelD.01/g09/l502.exe)
 Closed shell SCF:
 Using DIIS extrapolation, IDIIS=  1040.
 Integral symmetry usage will be decided dynamically.
 Keep R1 ints in memory in canonical form, NReq=7841594.
 IVT=       35988 IEndB=       35988 NGot=   563347456 MDV=   556402457
 LenX=   556402457 LenY=   556396540
 Requested convergence on RMS density matrix=1.00D-08 within 128 cycles.
 Requested convergence on MAX density matrix=1.00D-06.
 Requested convergence on             energy=1.00D-06.
 No special actions if energy rises.
 FoFCou: FMM=F IPFlag=           0 FMFlag=           0 FMFlg1=           0
         NFxFlg=           0 DoJE=F BraDBF=F KetDBF=F FulRan=T
         wScrn=  0.000000 ICntrl=     600 IOpCl=  0 I1Cent=           0 NGrid=           0
         NMat0=    1 NMatS0=   2628 NMatT0=    0 NMatD0=    1 NMtDS0=    0 NMtDT0=    0
 Symmetry not used in FoFCou.
 Integral accuracy reduced to 1.0D-05 until final iterations.

 Cycle   1  Pass 0  IDiag  1:
 E= -79.7914702174697    
 DIIS: error= 6.93D-02 at cycle   1 NSaved=   1.
 NSaved= 1 IEnMin= 1 EnMin= -79.7914702174697     IErMin= 1 ErrMin= 6.93D-02
 ErrMax= 6.93D-02  0.00D+00 EMaxC= 1.00D-01 BMatC= 1.68D-01 BMatP= 1.68D-01
 IDIUse=3 WtCom= 3.07D-01 WtEn= 6.93D-01
 Coeff-Com:  0.100D+01
 Coeff-En:   0.100D+01
 Coeff:      0.100D+01
 Gap=     0.524 Goal=   None    Shift=    0.000
 GapD=    0.524 DampG=2.000 DampE=0.500 DampFc=1.0000 IDamp=-1.
 RMSDP=1.97D-03 MaxDP=2.54D-02              OVMax= 6.06D-02

 Cycle   2  Pass 0  IDiag  1:
 E= -79.8138865627774     Delta-E=       -0.022416345308 Rises=F Damp=F
 DIIS: error= 1.74D-02 at cycle   2 NSaved=   2.
 NSaved= 2 IEnMin= 2 EnMin= -79.8138865627774     IErMin= 2 ErrMin= 1.74D-02
 ErrMax= 1.74D-02  0.00D+00 EMaxC= 1.00D-01 BMatC= 1.08D-02 BMatP= 1.68D-01
 IDIUse=3 WtCom= 8.26D-01 WtEn= 1.74D-01
 Coeff-Com:  0.118D+00 0.882D+00
 Coeff-En:   0.365D-01 0.964D+00
 Coeff:      0.104D+00 0.896D+00
 Gap=     0.564 Goal=   None    Shift=    0.000
 RMSDP=1.33D-03 MaxDP=3.20D-02 DE=-2.24D-02 OVMax= 3.75D-02

 Cycle   3  Pass 0  IDiag  1:
 E= -79.8205404742372     Delta-E=       -0.006653911460 Rises=F Damp=F
 DIIS: error= 1.10D-02 at cycle   3 NSaved=   3.
 NSaved= 3 IEnMin= 3 EnMin= -79.8205404742372     IErMin= 3 ErrMin= 1.10D-02
 ErrMax= 1.10D-02  0.00D+00 EMaxC= 1.00D-01 BMatC= 4.41D-03 BMatP= 1.08D-02
 IDIUse=3 WtCom= 8.90D-01 WtEn= 1.10D-01
 Coeff-Com:  0.226D-01 0.392D+00 0.585D+00
 Coeff-En:   0.000D+00 0.236D+00 0.764D+00
 Coeff:      0.201D-01 0.375D+00 0.605D+00
 Gap=     0.551 Goal=   None    Shift=    0.000
 RMSDP=5.10D-04 MaxDP=1.14D-02 DE=-6.65D-03 OVMax= 1.54D-02

 Cycle   4  Pass 0  IDiag  1:
 E= -79.8247051211485     Delta-E=       -0.004164646911 Rises=F Damp=F
 DIIS: error= 6.45D-04 at cycle   4 NSaved=   4.
 NSaved= 4 IEnMin= 4 EnMin= -79.8247051211485     IErMin= 4 ErrMin= 6.45D-04
 ErrMax= 6.45D-04  0.00D+00 EMaxC= 1.00D-01 BMatC= 8.56D-06 BMatP= 4.41D-03
 IDIUse=3 WtCom= 9.94D-01 WtEn= 6.45D-03
 Coeff-Com: -0.236D-02-0.412D-01-0.188D-01 0.106D+01
 Coeff-En:   0.000D+00 0.000D+00 0.000D+00 0.100D+01
 Coeff:     -0.235D-02-0.409D-01-0.186D-01 0.106D+01
 Gap=     0.551 Goal=   None    Shift=    0.000
 RMSDP=4.37D-05 MaxDP=7.44D-04 DE=-4.16D-03 OVMax= 1.27D-03

 Cycle   5  Pass 0  IDiag  1:
 E= -79.8247149310411     Delta-E=       -0.000009809893 Rises=F Damp=F
 DIIS: error= 4.50D-05 at cycle   5 NSaved=   5.
 NSaved= 5 IEnMin= 5 EnMin= -79.8247149310411     IErMin= 5 ErrMin= 4.50D-05
 ErrMax= 4.50D-05  0.00D+00 EMaxC= 1.00D-01 BMatC= 1.26D-07 BMatP= 8.56D-06
 IDIUse=1 WtCom= 1.00D+00 WtEn= 0.00D+00
 Coeff-Com: -0.957D-03-0.169D-01-0.207D-01 0.603D-01 0.978D+00
 Coeff:     -0.957D-03-0.169D-01-0.207D-01 0.603D-01 0.978D+00
 Gap=     0.551 Goal=   None    Shift=    0.000
 RMSDP=9.36D-06 MaxDP=9.97D-05 DE=-9.81D-06 OVMax= 1.72D-04

 Initial convergence to 1.0D-05 achieved.  Increase integral accuracy.
 Cycle   6  Pass 1  IDiag  1:
 E= -79.8247215007361     Delta-E=       -0.000006569695 Rises=F Damp=F
 DIIS: error= 2.23D-05 at cycle   1 NSaved=   1.
 NSaved= 1 IEnMin= 1 EnMin= -79.8247215007361     IErMin= 1 ErrMin= 2.23D-05
 ErrMax= 2.23D-05  0.00D+00 EMaxC= 1.00D-01 BMatC= 1.58D-08 BMatP= 1.58D-08
 IDIUse=1 WtCom= 1.00D+00 WtEn= 0.00D+00
 Coeff-Com:  0.100D+01
 Coeff:      0.100D+01
 Gap=     0.551 Goal=   None    Shift=    0.000
 RMSDP=9.36D-06 MaxDP=9.97D-05 DE=-6.57D-06 OVMax= 5.40D-05

 Cycle   7  Pass 1  IDiag  1:
 E= -79.8247215189188     Delta-E=       -0.000000018183 Rises=F Damp=F
 DIIS: error= 4.54D-06 at cycle   2 NSaved=   2.
 NSaved= 2 IEnMin= 2 EnMin= -79.8247215189188     IErMin= 2 ErrMin= 4.54D-06
 ErrMax= 4.54D-06  0.00D+00 EMaxC= 1.00D-01 BMatC= 8.67D-10 BMatP= 1.58D-08
 IDIUse=1 WtCom= 1.00D+00 WtEn= 0.00D+00
 Coeff-Com:  0.697D-02 0.993D+00
 Coeff:      0.697D-02 0.993D+00
 Gap=     0.551 Goal=   None    Shift=    0.000
 RMSDP=6.85D-07 MaxDP=7.98D-06 DE=-1.82D-08 OVMax= 1.43D-05

 Cycle   8  Pass 1  IDiag  1:
 E= -79.8247215198221     Delta-E=       -0.000000000903 Rises=F Damp=F
 DIIS: error= 3.68D-06 at cycle   3 NSaved=   3.
 NSaved= 3 IEnMin= 3 EnMin= -79.8247215198221     IErMin= 3 ErrMin= 3.68D-06
 ErrMax= 3.68D-06  0.00D+00 EMaxC= 1.00D-01 BMatC= 4.34D-10 BMatP= 8.67D-10
 IDIUse=1 WtCom= 1.00D+00 WtEn= 0.00D+00
 Coeff-Com: -0.612D-01 0.413D+00 0.648D+00
 Coeff:     -0.612D-01 0.413D+00 0.648D+00
 Gap=     0.551 Goal=   None    Shift=    0.000
 RMSDP=1.98D-07 MaxDP=4.99D-06 DE=-9.03D-10 OVMax= 6.26D-06

 Cycle   9  Pass 1  IDiag  1:
 E= -79.8247215202478     Delta-E=       -0.000000000426 Rises=F Damp=F
 DIIS: error= 1.93D-07 at cycle   4 NSaved=   4.
 NSaved= 4 IEnMin= 4 EnMin= -79.8247215202478     IErMin= 4 ErrMin= 1.93D-07
 ErrMax= 1.93D-07  0.00D+00 EMaxC= 1.00D-01 BMatC= 2.60D-12 BMatP= 4.34D-10
 IDIUse=1 WtCom= 1.00D+00 WtEn= 0.00D+00
 Coeff-Com:  0.776D-02-0.934D-01-0.971D-01 0.118D+01
 Coeff:      0.776D-02-0.934D-01-0.971D-01 0.118D+01
 Gap=     0.551 Goal=   None    Shift=    0.000
 RMSDP=8.29D-08 MaxDP=7.58D-07 DE=-4.26D-10 OVMax= 1.70D-06

 Cycle  10  Pass 1  IDiag  1:
 E= -79.8247215202558     Delta-E=       -0.000000000008 Rises=F Damp=F
 DIIS: error= 3.35D-08 at cycle   5 NSaved=   5.
 NSaved= 5 IEnMin= 5 EnMin= -79.8247215202558     IErMin= 5 ErrMin= 3.35D-08
 ErrMax= 3.35D-08  0.00D+00 EMaxC= 1.00D-01 BMatC= 8.12D-14 BMatP= 2.60D-12
 IDIUse=1 WtCom= 1.00D+00 WtEn= 0.00D+00
 Coeff-Com:  0.241D-02-0.203D-01-0.290D-01 0.129D+00 0.918D+00
 Coeff:      0.241D-02-0.203D-01-0.290D-01 0.129D+00 0.918D+00
 Gap=     0.551 Goal=   None    Shift=    0.000
 RMSDP=8.76D-09 MaxDP=7.44D-08 DE=-7.96D-12 OVMax= 1.79D-07

 SCF Done:  E(RwB97XD) =  -79.8247215203     A.U. after   10 cycles
            NFock= 10  Conv=0.88D-08     -V/T= 2.0055
 KE= 7.938670818447D+01 PE=-2.687573529958D+02 EE= 6.729080267776D+01
 Leave Link  502 at Wed Mar 22 22:18:59 2017, MaxMem=   563347456 cpu:        32.7
 (Enter /share/apps/g09RelD.01/g09/l601.exe)
 Copying SCF densities to generalized density rwf, IOpCl= 0 IROHF=0.

 **********************************************************************

            Population analysis using the SCF density.

 **********************************************************************

 Orbital symmetries:
       Occupied  (A) (A) (A) (A) (A) (A) (A) (A) (A)
       Virtual   (A) (A) (A) (A) (A) (A) (A) (A) (A) (A) (A) (A)
                 (A) (A) (A) (A) (A) (A) (A) (A) (A) (A) (A) (A)
                 (A) (A) (A) (A) (A) (A) (A) (A) (A) (A) (A) (A)
                 (A) (A) (A) (A) (A) (A) (A) (A) (A) (A) (A) (A)
                 (A) (A) (A) (A) (A) (A) (A) (A) (A) (A) (A) (A)
                 (A) (A) (A)
 The electronic state is 1-A.
 Alpha  occ. eigenvalues --  -10.26837 -10.26813  -0.85242  -0.71069  -0.52215
 Alpha  occ. eigenvalues --   -0.52013  -0.45291  -0.42480  -0.42262
 Alpha virt. eigenvalues --    0.12851   0.16914   0.18345   0.18390   0.22036
 Alpha virt. eigenvalues --    0.22096   0.30808   0.37812   0.38004   0.41432
 Alpha virt. eigenvalues --    0.41518   0.41609   0.62516   0.65820   0.67207
 Alpha virt. eigenvalues --    0.67307   0.68605   0.68627   0.70769   0.84175
 Alpha virt. eigenvalues --    0.94913   1.03999   1.04178   1.33714   1.33924
 Alpha virt. eigenvalues --    1.54964   1.55221   1.55544   1.55938   1.56585
 Alpha virt. eigenvalues --    1.56940   1.58699   1.78378   1.78558   1.78971
 Alpha virt. eigenvalues --    1.91468   1.91607   2.07753   2.18325   2.18761
 Alpha virt. eigenvalues --    2.19345   2.37100   2.40818   2.40936   2.46692
 Alpha virt. eigenvalues --    2.47298   2.53028   2.60924   2.61387   2.67738
 Alpha virt. eigenvalues --    2.68042   2.74701   2.75346   2.83691   2.87202
 Alpha virt. eigenvalues --    3.26602   3.87373   3.89246   3.91380   3.92723
 Alpha virt. eigenvalues --    4.32846  24.02621  24.09487
          Condensed to atoms (all electrons):
               1          2          3          4          5          6
     1  H    0.573302  -0.030313  -0.027217   0.408344  -0.034709  -0.006456
     2  H   -0.030313   0.576286  -0.028487   0.408134  -0.035121  -0.005153
     3  H   -0.027217  -0.028487   0.570837   0.408419  -0.034903   0.007475
     4  C    0.408344   0.408134   0.408419   4.873932   0.350436  -0.034999
     5  C   -0.034709  -0.035121  -0.034903   0.350436   4.872311   0.408276
     6  H   -0.006456  -0.005153   0.007475  -0.034999   0.408276   0.573820
     7  H    0.007517  -0.006755  -0.004884  -0.035197   0.408607  -0.028287
     8  H   -0.005059   0.007576  -0.006415  -0.034923   0.408491  -0.028887
               7          8
     1  H    0.007517  -0.005059
     2  H   -0.006755   0.007576
     3  H   -0.004884  -0.006415
     4  C   -0.035197  -0.034923
     5  C    0.408607   0.408491
     6  H   -0.028287  -0.028887
     7  H    0.572550  -0.028443
     8  H   -0.028443   0.572826
 Mulliken charges:
               1
     1  H    0.114590
     2  H    0.113832
     3  H    0.115174
     4  C   -0.344146
     5  C   -0.343388
     6  H    0.114211
     7  H    0.114891
     8  H    0.114835
 Sum of Mulliken charges =   0.00000
 Mulliken charges with hydrogens summed into heavy atoms:
               1
     4  C   -0.000549
     5  C    0.000549
 Electronic spatial extent (au):  <R**2>=            109.5196
 Charge=              0.0000 electrons
 Dipole moment (field-independent basis, Debye):
    X=             -0.0001    Y=              0.0087    Z=              0.0077  Tot=              0.0116
 Quadrupole moment (field-independent basis, Debye-Ang):
   XX=            -15.4169   YY=            -14.8082   ZZ=            -14.8845
   XY=             -0.0123   XZ=             -0.0133   YZ=             -0.0020
 Traceless Quadrupole moment (field-independent basis, Debye-Ang):
   XX=             -0.3804   YY=              0.2284   ZZ=              0.1520
   XY=             -0.0123   XZ=             -0.0133   YZ=             -0.0020
 Octapole moment (field-independent basis, Debye-Ang**2):
  XXX=             -0.0106  YYY=              0.0837  ZZZ=              0.0857  XYY=             -0.0522
  XXY=              0.0212  XXZ=             -0.0069  XZZ=              0.0612  YZZ=             -0.0713
  YYZ=             -0.0649  XYZ=             -0.0129
 Hexadecapole moment (field-independent basis, Debye-Ang**3):
 XXXX=            -94.6052 YYYY=            -29.5451 ZZZZ=            -29.5193 XXXY=             -0.0452
 XXXZ=             -0.0426 YYYX=              1.0320 YYYZ=             -0.0118 ZZZX=             -1.0489
 ZZZY=              0.0028 XXYY=            -19.4313 XXZZ=            -19.4988 YYZZ=             -9.8497
 XXYZ=             -0.0019 YYXZ=              1.0372 ZZXY=             -1.0484
 N-N= 4.225512061326D+01 E-N=-2.687573536047D+02  KE= 7.938670818447D+01
 No NMR shielding tensors so no spin-rotation constants.
 Leave Link  601 at Wed Mar 22 22:19:00 2017, MaxMem=   563347456 cpu:         0.9
 (Enter /share/apps/g09RelD.01/g09/l9999.exe)
 1\1\GINC-COMPUTE-0-7\SP\RwB97XD\6-311G(d,p)\C2H6\BERTA\22-Mar-2017\0\\
 #P RwB97XD/6-311G(d,p)int(grid=ultrafine) scf\\frag1_point4\\0,1\H,0,-
 0.153061,1.758125,2.010922\H,0,-0.022223,2.070915,3.724584\H,0,0.84079
 2,0.701368,3.028743\C,0,0.545771,1.73894,2.850968\C,0,1.752808,2.63393
 6,2.602214\H,0,1.447971,3.659019,2.375011\H,0,2.406586,2.672822,3.4762
 78\H,0,2.351265,2.282033,1.758296\\Version=AS64L-G09RevD.01\State=1-A\
 HF=-79.8247215\RMSD=8.756e-09\Dipole=-0.0023999,0.0035866,0.0014714\Qu
 adrupole=-0.1056561,-0.0075646,0.1132207,-0.2119753,0.0598774,0.020808
 7\PG=C01 [X(C2H6)]\\@


 MAN IS THE MEASURE OF ALL THINGS.
  -- PROTAGORAS (5TH CENTURY B.C.)
 Job cpu time:       0 days  0 hours  0 minutes 41.7 seconds.
 File lengths (MBytes):  RWF=      5 Int=      0 D2E=      0 Chk=      2 Scr=      1
 Normal termination of Gaussian 09 at Wed Mar 22 22:19:00 2017.
termination
